14
 energy: -13.650583264863 gnorm: 0.048593253006 xtb: 6.5.0 (unknown-commit)
c            0.95026311723646       -1.25439891835946        0.43205357307998
c            0.91968146970581        0.03402824682078       -0.38070552076936
c           -0.42928824536855        0.68841303215100       -0.66913663501649
c           -1.43293317388727        0.62555294698140        0.47561548054980
h            0.21885324500646       -1.94906727154221        0.02419183703063
h            1.95969707988907       -1.63757892706820        0.29735133564334
h            0.77589107359829       -1.06773574556985        1.48925921163642
h            1.49780283251794        0.68656362424875        0.27784951451741
h            1.47677558206576       -0.12143397694449       -1.30760042655439
h           -0.23687430217098        1.71782662804115       -0.98069732942800
h           -0.75086607365967        0.29414434928884       -1.63605654447939
h           -0.84867927795080        0.69080002934543        1.39064058625771
h           -1.96157005610751       -0.32483488655253        0.50789279524148
h           -2.17742436724875        1.41751438460943        0.52328165279608
14
 energy: -13.651165322399 gnorm: 0.056379627153 xtb: 6.5.0 (unknown-commit)
c            1.01469667560689       -1.33590512034438        0.28051654769347
c            0.95737262434822        0.14209479229648       -0.08525284740694
c           -0.40200741187122        0.54959541492398       -0.64842270993633
c           -1.51202697431160        0.78235420789392        0.36911931596511
h            0.38381177057071       -1.59213034223475        1.12916757233958
h            0.69565755405604       -1.89560905396176       -0.59633808911285
h            2.01517332102567       -1.68082449038909        0.53153365886920
h            1.36341555782108        0.69175455614756        0.76722865706015
h            1.63443333982815        0.35732347046259       -0.91526601910122
h           -0.15655670466295        1.48240963948726       -1.16164492698077
h           -0.68227355307938       -0.26110710330741       -1.32518445242298
h           -1.41611197435924        1.40913861332465        1.25276084724298
h           -1.81440339390075       -0.18491437083435        0.76496748698367
h           -2.37168072881203        1.11265425620799       -0.21022461027481
14
 energy: -13.648383706275 gnorm: 0.053454715845 xtb: 6.5.0 (unknown-commit)
c            0.85837601111290       -1.31698917687391        0.23941395391224
c            1.02694585252711        0.18756524649908        0.06778285564437
c           -0.27478709668580        0.60315589426859       -0.61332425487992
c           -1.51363677193333        0.65095280556186        0.27249673404925
h            1.43384417407988       -1.70733038738966        1.07628062420118
h           -0.16951343750447       -1.59943959090206        0.45757342896753
h            1.20818225921634       -1.74357143819986       -0.69792037134533
h            1.17107156199054        0.71345850494580        1.01455923027489
h            1.83435260418582        0.43746373388812       -0.62453322533962
h           -0.19419303011013        1.55462917738039       -1.14435032419801
h           -0.39066201722814       -0.04589698570149       -1.48458628511256
h           -1.80432015859093        1.64133248469758        0.61532613455712
h           -1.35691808781785       -0.03682765242365        1.10082824040058
h           -2.31376578230224        0.30567670371296       -0.37890181516363
14
 energy: -13.646676776641 gnorm: 0.055089631285 xtb: 6.5.0 (unknown-commit)
c            0.90297163441674       -1.28004706988590        0.38009162994350
c            0.96223012353670        0.22468921767723        0.14811281155360
c           -0.24530983684032        0.59192679364138       -0.71102334884949
c           -1.55425655524309        0.59865035557687        0.06892866538227
h            1.47719387718200       -1.70158921130814       -0.44237218231810
h            1.40721557882029       -1.52343913673358        1.31305832648174
h           -0.09200093461329       -1.71132181035384        0.46354320699437
h            0.94601809641391        0.79085235763298        1.08241356912238
h            1.91767585345582        0.46864152385170       -0.32227767191445
h           -0.18979963971691        1.64528394010575       -0.99587912178872
h           -0.22135176790551       -0.19524002671716       -1.46837964050252
h           -1.35143886092069        0.58615678887479        1.13738063805419
h           -2.06364246539969       -0.32744932992149       -0.18914330638463
h           -2.22404806026186        1.42433574043613       -0.16208016717805
14
 energy: -13.643212217296 gnorm: 0.065900321359 xtb: 6.5.0 (unknown-commit)
c            0.84327428605750       -1.26544504046346        0.54705715569232
c            0.99168717411481        0.19144030443104        0.12632475024365
c           -0.18825952339081        0.76157485085304       -0.65713139708977
c           -1.56878180602263        0.42787074357319       -0.10530565107085
h           -0.14864056927364       -1.67540804555934        0.36842080133081
h            1.58830964885217       -1.86878205497404        0.03243567190310
h            0.99744087568757       -1.41319730227747        1.61351597582947
h            0.96304997289465        0.82526805614355        1.01579859221444
h            1.91145307485060        0.38879851689957       -0.42931622881430
h           -0.16531652540817        1.85344436724143       -0.68999557434066
h           -0.06695713234710        0.56481786760559       -1.72501087143078
h           -1.32516309234814        0.10926208764589        0.90564398172971
h           -1.89388173661144       -0.41608764982369       -0.71010316939070
h           -2.32824737257911        1.20689179432980       -0.11426944051132