14
 energy: -13.664497750873 gnorm: 0.000083376454 xtb: 6.4.1 (79825abcba525fcdf90b791dcacef51065a7a4e7)
c         1.93795379319999    0.13365910700011    0.00067323390012
c         0.56070716360013   -0.51806722689980   -0.00071013319974
c        -0.56068502709985    0.51808480419984   -0.00073393480018
c        -1.93797359499983   -0.13367163130026    0.00066710740013
h         2.06444687880000    0.75998136160013   -0.88000594539989
h         2.06414739739995    0.75709869880026    0.88346820309997
h         2.72028620679987   -0.62191178559995   -0.00046457389990
h         0.46151483889997   -1.15512597220026   -0.88277512090015
h         0.46034449709997   -1.15623103360018    0.88038630559988
h        -0.46034441969986    1.15636817099997    0.88035161919997
h        -0.46141962639994    1.15503565560008   -0.88290983039974
h        -2.72041094110014    0.62175717889991    0.00050616290016
h        -2.06373252139992   -0.75767874090023    0.88301385859974
h        -2.06486013150010   -0.75935374860025   -0.88033458189992