14
 energy: -11.904936211339 gnorm: 0.185572211994 xtb: 6.5.1 (f079c74acce18703fa9088b310e7ebda6c73b01b)
c            3.66220157154900        0.25257908285800        0.00127222757100
c            1.05958287701200       -0.97900508215300       -0.00134195713500
c           -1.05954104509300        0.97903829843300       -0.00138693563700
c           -3.66223899152400       -0.25260275035300        0.00126065016500
h            3.90123883781400        1.43615649999800       -1.66297007055800
h            3.90067290004100        1.43070905730200        1.66951278877700
h            5.14059543450500       -1.17524283942200       -0.00087791735400
h            0.87213656705500       -2.18287152437400       -1.66820305335900
h            0.86992494178600       -2.18495978757700        1.66368884709800
h           -0.86992479552100        2.18521893968000        1.66362329930800
h           -0.87195664152300        2.18270085075100       -1.66845761739600
h           -5.14083114814900        1.17495067512900        0.00095650916700
h           -3.89988889809800       -1.43180517791000        1.66865420218500
h           -3.90201977216500       -1.43497048342600       -1.66359110348000
