14
 energy: -1.978846617328 gnorm: 0.023321120126 xtb: 6.5.1 (ff683c2162dacc8097304a2aefd97eb867d3cca5)
c            1.93795361340235        0.13365909459961        0.00067323383766
c            0.56070711157937       -0.51806717883505       -0.00071013313385
c           -0.56068497508114        0.51808475613346       -0.00073393473209
c           -1.93797341520035       -0.13367161889860        0.00066710733824
h            2.06444668726670        0.75998129109130       -0.88000586375553
h            2.06414720589443        0.75709862855887        0.88346812113439
h            2.72028595441972       -0.62191172790081       -0.00046457385679
h            0.46151479608198       -1.15512586503107       -0.88277503899887
h            0.46034445439057       -1.15623092632847        0.88038622392023
h           -0.46034437699046        1.15636806371553        0.88035153752354
h           -0.46141958359079        1.15503554843928       -0.88290974848597
h           -2.72041068870843        0.62175712121511        0.00050616285320
h           -2.06373232993289       -0.75767867060502        0.88301377667632
h           -2.06485993992846       -0.75935367814964       -0.88033450022507
